title DL_POLY_4 CONTROL DIRECTIVES
# DIRECT CALCULATION OF VDW/METAL INTERACTIONS INSTEAD OF
# EVALUATION BY SPLINING OVER TABULATED VALUES IN MEMORY
# vdw_method direct

# RANDOM NUMBER GENERATOR SEEDING
random_seed [  100  200  300 ]

# RESTART OPTIONS
# restart noscale

# SYSTEM TARGET TEMPERATURE AND PRESSURE
temperature  298.15 K

# SYSTEM CUTOFFS AND ELECTROSTATICS
vdw_cutoff  13.8756 ang
padding  0.35 ang
cutoff  13.8756 ang

subcelling_threshold_density   50.0 %

# coul_extended_exclusion ON
# coul_dielectric_constant 1.0
# coul_method ewald
# ewald_precision 1e-05

# INTEGRATION FLAVOUR, ENSEMBLE AND PSEUDO THERMOSTAT
ensemble nvt
ensemble_method dpds1

# SIMULATION & EQUILIBRATION LENGTH
time_run  500000 steps
time_equilibration  400000 steps

# EQUILIBRATION DIRECTIVES
# reset_temperature_interval  1000.0 steps
rescale_frequency  5000.0 steps
# regauss_frequency 3.0 steps

# STATISTICS
record_equilibration ON
stack_size  50.0 steps
stats_frequency  10.0 steps

# OUTPUT
print_frequency  100.0 steps

# HISTORY
traj_calculate ON
traj_start  400000.0 steps
traj_interval  100.0 steps
traj_key pos-vel

# MSDTMP
# msd_calculate ON
# msd_start  1000.0 steps
# msd_frequency  100.0 steps

# RDF & Z-DENSITY
# rdf_print OFF
# rdf_calculate ON
# rdf_frequency  7.0 steps
# rdf_binsize 0.05
zden_print ON
zden_calculate ON
zden_frequency  100 steps
zden_binsize 1.5

# EXECUTION TIME
time_job  4800.0 s
time_close  60.0 s
